[Molden Format]
[Atoms] AU
   O     1     8   -0.12659186   -0.04385271   -0.05063674
   H     2     1    1.29415000   -1.15663180    0.98096584
   H     3     1    0.71501770    1.85262790   -0.17729876
[GTO]
   1   0
   s     8  1.00
    1.1720000000E+04    7.1000000000E-04
    1.7590000000E+03    5.4700000000E-03
    4.0080000000E+02    2.7837000000E-02
    1.1370000000E+02    1.0480000000E-01
    3.7030000000E+01    2.8306200000E-01
    1.3270000000E+01    4.4871900000E-01
    5.0250000000E+00    2.7095200000E-01
    1.0130000000E+00    1.5458000000E-02
   s     8  1.00
    1.1720000000E+04   -1.6000000000E-04
    1.7590000000E+03   -1.2630000000E-03
    4.0080000000E+02   -6.2670000000E-03
    1.1370000000E+02   -2.5716000000E-02
    3.7030000000E+01   -7.0924000000E-02
    1.3270000000E+01   -1.6541100000E-01
    5.0250000000E+00   -1.1695500000E-01
    1.0130000000E+00    5.5736800000E-01
   s     1  1.00
    3.0230000000E-01    1.0000000000E+00
   p     3  1.00
    1.7700000000E+01    4.3018000000E-02
    3.8540000000E+00    2.2891300000E-01
    1.0460000000E+00    5.0872800000E-01
   p     1  1.00
    2.7530000000E-01    1.0000000000E+00
   d     1  1.00
    1.1850000000E+00    1.0000000000E+00
   s     1  1.00
    7.8960000000E-02    1.0000000000E+00
   p     1  1.00
    6.8560000000E-02    1.0000000000E+00
   d     1  1.00
    3.3200000000E-01    1.0000000000E+00

   2   0
   s     3  1.00
    1.3010000000E+01    1.9685000000E-02
    1.9620000000E+00    1.3797700000E-01
    4.4460000000E-01    4.7814800000E-01
   s     1  1.00
    1.2200000000E-01    1.0000000000E+00
   p     1  1.00
    7.2700000000E-01    1.0000000000E+00
   s     1  1.00
    2.9740000000E-02    1.0000000000E+00
   p     1  1.00
    1.4100000000E-01    1.0000000000E+00

   3   0
   s     3  1.00
    1.3010000000E+01    1.9685000000E-02
    1.9620000000E+00    1.3797700000E-01
    4.4460000000E-01    4.7814800000E-01
   s     1  1.00
    1.2200000000E-01    1.0000000000E+00
   p     1  1.00
    7.2700000000E-01    1.0000000000E+00
   s     1  1.00
    2.9740000000E-02    1.0000000000E+00
   p     1  1.00
    1.4100000000E-01    1.0000000000E+00

[MO]
    Sym=
    Ene=  -20.5992326550
   Spin=Alpha
  Occup=2.0000000000
     1 -1.0008307481E+00
     2 -3.3663286403E-03
     3 7.4527500772E-03
     4 -1.8488028936E-03
     5 -6.4044410898E-04
     6 -7.3952115745E-04
     7 1.8538726186E-03
     8 6.4220031325E-04
     9 7.4154904745E-04
    14 7.8353554564E-06
    12 -3.5808219705E-05
    10 -4.8492861290E-05
    11 4.6519794361E-05
    13 -2.0025606078E-05
    15 4.3139770127E-03
    16 7.0834509223E-04
    17 2.4537793781E-04
    18 2.8333803689E-04
    23 1.1393172528E-05
    21 -2.2415551991E-04
    19 -2.6172076938E-04
    20 2.3323468620E-04
    22 -1.6159191431E-04
    24 -1.2689958707E-03
    25 -3.4837285582E-03
    26 -1.8971253861E-05
    27 -5.7025231504E-05
    28 6.9761394494E-06
    29 -2.7863821198E-04
    30 1.1107692781E-03
    31 -8.1807106618E-04
    32 7.9154141421E-04
    33 -1.2689958707E-03
    34 -3.4837285582E-03
    35 -3.7177055102E-05
    36 3.7574886728E-05
    37 -2.9435463035E-05
    38 -2.7863821199E-04
    39 6.7672714945E-04
    40 1.4372779924E-03
    41 -7.6542843173E-05
    Sym=
    Ene=   -1.2954053876
   Spin=Alpha
  Occup=2.0000000000
     1 -4.6159667278E-03
     2 9.0247758439E-01
     3 4.7104273714E-01
     4 6.7849237961E-02
     5 2.3503665480E-02
     6 2.7139695184E-02
     7 1.0740296223E-02
     8 3.7205477493E-03
     9 4.2961184892E-03
    14 4.9897245269E-04
    12 -2.4958233890E-03
    10 -3.3275509352E-03
    11 3.1698255222E-03
    13 -1.4411492742E-03
    15 7.7738776979E-02
    16 1.2503071677E-02
    17 4.3311910791E-03
    18 5.0012286709E-03
    23 -3.6429624060E-04
    21 4.5895797874E-03
    19 5.5043066978E-03
    20 -4.9771959631E-03
    22 3.1825159467E-03
    24 2.4762059822E-01
    25 -3.1622851249E-02
    26 -1.9870835117E-02
    27 1.8605267284E-02
    28 -1.5306295596E-02
    29 -3.5771472023E-03
    30 9.6472236577E-03
    31 -5.8237000287E-03
    32 6.5047692184E-03
    33 2.4762059822E-01
    34 -3.1622851249E-02
    35 -1.0673383181E-02
    36 -2.9186094878E-02
    37 3.0886082767E-03
    38 -3.5771472023E-03
    39 6.3398739634E-03
    40 1.1361793098E-02
    41 -1.0993016999E-04
    Sym=
    Ene=   -0.6475710138
   Spin=Alpha
  Occup=2.0000000000
     4 1.2477652817E-01
     5 -6.4835785913E-01
     6 2.4955305633E-01
     7 4.6052351258E-02
     8 -2.3929503656E-01
     9 9.2104702516E-02
    14 -1.8093888929E-02
    12 -5.1696825511E-03
    10 5.1696825511E-03
    11 8.9541528376E-03
    13 1.0446511644E-02
    16 5.3603640526E-03
    17 -2.7853268659E-02
    18 1.0720728105E-02
    23 9.4391967773E-03
    21 2.6969133649E-03
    19 -2.6969133649E-03
    20 -4.6711909717E-03
    22 -5.4497228003E-03
    24 5.2011355559E-01
    25 7.3412106133E-02
    26 -3.1520852683E-02
    27 1.3316961920E-02
    28 -1.9604702116E-02
    29 -8.3108411798E-03
    30 5.8227019428E-03
    31 -6.8864828557E-03
    32 4.8993073367E-03
    33 -5.2011355559E-01
    34 -7.3412106133E-02
    35 2.2775401379E-02
    36 3.2125736059E-02
    37 2.1137995089E-03
    38 8.3108411798E-03
    39 -2.6099187434E-03
    40 -9.8076283496E-03
    41 1.5262590622E-03
    Sym=
    Ene=   -0.5590045298
   Spin=Alpha
  Occup=2.0000000000
     1 -2.9250003504E-03
     2 -2.7672554364E-01
     3 -2.5316037039E-01
     4 6.8853739985E-01
     5 2.3851635189E-01
     6 2.7541495994E-01
     7 3.0524523640E-01
     8 1.0574005164E-01
     9 1.2209809456E-01
    14 5.1461451580E-03
    12 -6.5078950130E-04
    10 -6.4410385103E-03
    11 8.5492312689E-03
    13 4.4509024954E-03
    15 -6.2655762666E-02
    16 3.8101115245E-02
    17 1.3198613486E-02
    18 1.5240446098E-02
    23 9.4775149721E-03
    21 7.7551660120E-03
    19 -1.9137210668E-03
    20 7.1291768800E-03
    22 1.5089672614E-02
    24 3.5313122732E-01
    25 7.7057160343E-02
    26 -8.5773160990E-03
    27 2.3158563997E-02
    28 -1.0973959628E-02
    29 2.7677325126E-03
    30 1.1937236723E-02
    31 5.3483716728E-03
    32 4.4246764489E-03
    33 3.5313122732E-01
    34 7.7057160344E-02
    35 8.5147538691E-04
    36 -2.5834873726E-02
    37 7.8836233435E-03
    38 2.7677325126E-03
    39 1.2375009523E-02
    40 3.0736374760E-03
    41 5.3002220495E-03
    Sym=
    Ene=   -0.5003166091
   Spin=Alpha
  Occup=2.0000000000
     4 -3.9955939490E-01
     5 2.3068572420E-01
     6 7.9911878979E-01
     7 -1.9662818686E-01
     8 1.1352333661E-01
     9 3.9325637372E-01
    14 9.9552140762E-04
    12 3.9820856305E-03
    10 5.9731284457E-03
    11 6.8971746321E-03
    13 -5.1728809740E-03
    16 -3.0675316753E-02
    17 1.7710402385E-02
    18 6.1350633506E-02
    23 1.7580159891E-03
    21 7.0320639564E-03
    19 1.0548095935E-02
    20 1.2179892055E-02
    22 -9.1349190410E-03
    26 -8.6514791295E-03
    27 4.9949338043E-03
    28 1.7302958259E-02
    30 -7.2846809466E-03
    31 4.2058125055E-03
    32 1.4569361893E-02
    35 -8.6514791295E-03
    36 4.9949338043E-03
    37 1.7302958259E-02
    39 -7.2846809466E-03
    40 4.2058125055E-03
    41 1.4569361893E-02
    Sym=
    Ene=    0.0320894176
   Spin=Alpha
  Occup=0.0000000000
     1 -6.4403590511E-05
     2 1.3054057446E-01
     3 1.7528505233E-01
     4 1.2072297630E-01
     5 4.1819665718E-02
     6 4.8289190520E-02
     7 1.3913638070E-01
     8 4.8198256113E-02
     9 5.5654552281E-02
    14 1.1975316367E-03
    12 1.4839954183E-03
    10 3.1829309067E-04
    11 4.1574531043E-04
    13 2.2947055603E-03
    15 1.3284391964E+00
    16 2.0409543435E-01
    17 7.0700732381E-02
    18 8.1638173740E-02
    23 2.2268052021E-04
    21 -6.2241510728E-03
    19 -7.1631462144E-03
    20 6.3320312508E-03
    22 -4.5770792996E-03
    24 -6.5155229935E-02
    25 -4.0089717329E-01
    26 -4.4240706519E-03
    27 5.7837202501E-03
    28 -3.8816515476E-03
    29 -7.9045744870E-01
    30 6.7235219516E-02
    31 -4.3485509928E-02
    32 4.6170795189E-02
    33 -6.5155229935E-02
    34 -4.0089717329E-01
    35 -1.7840415433E-03
    36 -7.9342733983E-03
    37 1.3984066695E-03
    38 -7.9045744871E-01
    39 4.3139335288E-02
    40 8.1720377286E-02
    41 -2.0209732683E-03
    Sym=
    Ene=    0.0569017331
   Spin=Alpha
  Occup=0.0000000000
     4 2.2614843735E-02
     5 -1.1751017506E-01
     6 4.5229687469E-02
     7 2.4610831925E-02
     8 -1.2788163394E-01
     9 4.9221663852E-02
    14 9.6163218950E-04
    12 2.7475205414E-04
    10 -2.7475205415E-04
    11 -4.7588451725E-04
    13 -5.5519860347E-04
    16 1.3124619070E-01
    17 -6.8197521181E-01
    18 2.6249238141E-01
    23 -1.7776531411E-02
    21 -5.0790089745E-03
    19 5.0790089747E-03
    20 8.7971015959E-03
    22 1.0263285195E-02
    24 -1.3017155741E-02
    25 -3.8819207411E-01
    26 -5.4627485340E-03
    27 2.8568563316E-04
    28 -2.8138446056E-03
    29 -2.5376289823E+00
    30 1.0605873033E-01
    31 -4.2636853926E-02
    32 6.5337564712E-02
    33 1.3017155740E-02
    34 3.8819207412E-01
    35 4.6768170439E-03
    36 3.7981341825E-03
    37 1.2419816256E-03
    38 2.5376289823E+00
    39 -7.7416139609E-02
    40 -1.0619441326E-01
    41 -8.0523832639E-03
    Sym=
    Ene=    0.1747564352
   Spin=Alpha
  Occup=0.0000000000
     1 -2.7723469538E-02
     2 -2.1508968395E-01
     3 2.0459073622E-01
     4 -2.9974980399E-01
     5 -1.0383637802E-01
     6 -1.1989992160E-01
     7 -4.2382930180E-02
     8 -1.4681877688E-02
     9 -1.6953172072E-02
    14 -4.3098766176E-03
    12 8.7015076209E-04
    10 5.7555859774E-03
    11 -7.4727920954E-03
    13 -3.4773383399E-03
    15 3.8851988701E+00
    16 1.5062238990E+00
    17 5.2177126413E-01
    18 6.0248955959E-01
    23 9.1113623107E-03
    21 -2.9446859310E-02
    19 -4.2842468467E-02
    20 4.2363113535E-02
    22 -1.3900790395E-02
    24 8.8468205343E-02
    25 -1.4691734074E+00
    26 2.3744589261E-02
    27 -1.8244414678E-02
    28 1.7139003493E-02
    29 -7.1038525571E-01
    30 3.2171495847E-01
    31 -3.2683984925E-01
    32 2.5520801671E-01
    33 8.8468205342E-02
    34 -1.4691734075E+00
    35 1.4193129525E-02
    36 3.1386425970E-02
    37 -1.9639159789E-03
    38 -7.1038525572E-01
    39 1.6356241683E-01
    40 4.9494486321E-01
    41 -6.1097066590E-02
    Sym=
    Ene=    0.2030803121
   Spin=Alpha
  Occup=0.0000000000
     4 -1.1376419500E-01
     5 6.5681788607E-02
     6 2.2752839000E-01
     7 -1.3330505988E-01
     8 7.6963712209E-02
     9 2.6661011977E-01
    14 1.1790081382E-03
    12 4.7160325527E-03
    10 7.0740488290E-03
    11 8.1684079914E-03
    13 -6.1263059935E-03
    16 5.9335675998E-01
    17 -3.4257468510E-01
    18 -1.1867135200E+00
    23 -4.0759941207E-03
    21 -1.6303976483E-02
    19 -2.4455964725E-02
    20 -2.8239315634E-02
    22 2.1179486726E-02
    26 4.9978524462E-03
    27 -2.8855114552E-03
    28 -9.9957048925E-03
    30 -9.3112829327E-02
    31 5.3758717077E-02
    32 1.8622565866E-01
    35 4.9978524462E-03
    36 -2.8855114552E-03
    37 -9.9957048925E-03
    39 -9.3112829327E-02
    40 5.3758717078E-02
    41 1.8622565866E-01
    Sym=
    Ene=    0.2076263795
   Spin=Alpha
  Occup=0.0000000000
     1 4.0811008339E-04
     2 2.7299663131E-01
     3 3.1051473725E-01
     4 8.1674972758E-02
     5 2.8293040505E-02
     6 3.2669989103E-02
     7 -6.7355581745E-02
     8 -2.3332657951E-02
     9 -2.6942232697E-02
    14 -2.2424684397E-03
    12 2.2308179876E-03
    10 4.9703182526E-03
    11 -5.5991116290E-03
    13 -4.4053177469E-04
    15 -7.1940783766E-01
    16 9.3392204240E-01
    17 3.2352008554E-01
    18 3.7356881696E-01
    23 1.7480181163E-02
    21 1.3149053958E-02
    19 -4.8123635613E-03
    20 1.4259816397E-02
    22 2.6942458624E-02
    24 -1.7469789586E-01
    25 -5.9365254959E-01
    26 2.9182794584E-04
    27 6.7006811284E-03
    28 -1.7884060537E-03
    29 4.6721785460E-01
    30 -2.9504416307E-01
    31 1.5330495648E-01
    32 -1.9177741048E-01
    33 -1.7469789586E-01
    34 -5.9365254959E-01
    35 2.6732494858E-03
    36 -5.6735481767E-03
    37 2.9744370264E-03
    38 4.6721785461E-01
    39 -2.0284448150E-01
    40 -3.2577864227E-01
    41 -7.3780473476E-03
    Sym=
    Ene=    0.2333645218
   Spin=Alpha
  Occup=0.0000000000
     4 -7.1215532425E-02
     5 3.7004676134E-01
     6 -1.4243106485E-01
     7 8.5553995879E-03
     8 -4.4455160305E-02
     9 1.7110799179E-02
    14 5.7897128574E-03
    12 1.6542036735E-03
    10 -1.6542036736E-03
    11 -2.8651648087E-03
    13 -3.3426922768E-03
    16 4.2139133402E-01
    17 -2.1896136012E+00
    18 8.4278266803E-01
    23 -7.5194296293E-02
    21 -2.1484084655E-02
    19 2.1484084655E-02
    20 3.7211526177E-02
    22 4.3413447206E-02
    24 3.8070224463E-02
    25 -1.5281534198E+00
    26 2.5985446593E-02
    27 -2.5759591099E-02
    28 2.0428876724E-02
    29 -2.2348890918E+00
    30 6.2773704196E-01
    31 -3.7014140903E-01
    32 4.2071914205E-01
    33 -3.8070224461E-02
    34 1.5281534198E+00
    35 -1.3442073984E-02
    36 -3.9417684870E-02
    37 4.6578684932E-03
    38 2.2348890918E+00
    39 -4.1570663537E-01
    40 -7.3160090182E-01
    41 3.3416711167E-03
    Sym=
    Ene=    0.2511229842
   Spin=Alpha
  Occup=0.0000000000
     4 4.2939212290E-02
     5 -2.2311869197E-01
     6 8.5878424580E-02
     7 5.4567922415E-02
     8 -2.8354324227E-01
     9 1.0913584483E-01
    14 1.5787305226E-02
    12 4.5106586359E-03
    10 -4.5106586360E-03
    11 -7.8126899331E-03
    13 -9.1148049220E-03
    16 3.3203530939E-01
    17 -1.7253060773E+00
    18 6.6407061878E-01
    23 -6.7616192644E-02
    21 -1.9318912184E-02
    19 1.9318912184E-02
    20 3.3461337450E-02
    22 3.9038227025E-02
    24 -2.8170366871E-01
    25 -1.6990987208E+00
    26 8.3794763121E-03
    27 -2.1250530402E-02
    28 1.0324237880E-02
    29 -4.6032420299E-01
    30 -1.3400351893E-01
    31 7.0084932092E-02
    32 -8.7233536669E-02
    33 2.8170366871E-01
    34 1.6990987208E+00
    35 3.3608288183E-04
    36 -2.4036843619E-02
    37 7.1068805080E-03
    38 4.6032420299E-01
    39 9.1963357556E-02
    40 1.4836215427E-01
    41 3.1532139249E-03
    Sym=
    Ene=    0.3177385950
   Spin=Alpha
  Occup=0.0000000000
     1 -1.1837532513E-02
     2 -7.8550367248E-02
     3 6.7670160817E-02
     4 1.0033219899E-01
     5 3.4756093256E-02
     6 4.0132879594E-02
     7 2.7272984874E-01
     8 9.4476390954E-02
     9 1.0909193950E-01
    14 1.1597936294E-02
    12 1.7974512390E-02
    10 7.0850845517E-03
    11 5.6020843148E-04
    13 2.4996905491E-02
    15 4.4619152975E+00
    16 5.1655312733E-01
    17 1.7893925227E-01
    18 2.0662125094E-01
    23 -3.6966412409E-02
    21 -6.8823125837E-02
    19 -3.5396348254E-02
    20 9.3115686338E-03
    22 -8.8551013897E-02
    24 -1.7939184340E-01
    25 -2.1956553829E+00
    26 2.3628237277E-02
    27 -8.1274784946E-03
    28 1.4160319587E-02
    29 -3.3733584151E-01
    30 4.7103661774E-01
    31 3.1793626946E-01
    32 1.4373801349E-01
    33 -1.7939184340E-01
    34 -2.1956553829E+00
    35 1.7741956432E-02
    36 2.2458533979E-02
    37 2.3877578967E-03
    38 -3.3733584150E-01
    39 5.2688240975E-01
    40 2.7753022026E-02
    41 2.5542959750E-01
    Sym=
    Ene=    0.3752222061
   Spin=Alpha
  Occup=0.0000000000
    14 1.4988430469E-02
    12 -2.3981488750E-02
    10 1.7986116562E-02
    13 5.1921446195E-03
    23 -4.4644184188E-02
    21 7.1430694700E-02
    19 -5.3573021025E-02
    22 -1.5465199055E-02
    26 2.5079944311E-03
    27 -1.4479912599E-03
    28 -5.0159888623E-03
    30 -4.4310769765E-01
    31 2.5582834852E-01
    32 8.8621539530E-01
    35 -2.5079944312E-03
    36 1.4479912600E-03
    37 5.0159888623E-03
    39 4.4310769765E-01
    40 -2.5582834852E-01
    41 -8.8621539530E-01
    Sym=
    Ene=    0.3833768060
   Spin=Alpha
  Occup=0.0000000000
     1 1.0165703887E-03
     2 -4.9655102101E-02
     3 -1.4142222790E-01
     4 2.1832448880E-01
     5 7.5629821429E-02
     6 8.7329795521E-02
     7 5.8012347441E-01
     8 2.0096066647E-01
     9 2.3204938976E-01
    14 -1.0553271543E-02
    12 -6.2129005612E-03
    10 4.8226344237E-03
    11 -1.0269458090E-02
    13 -1.4937583358E-02
    15 4.2469317091E+00
    16 1.5921552396E+00
    17 5.5153875371E-01
    18 6.3686209585E-01
    23 4.0347416980E-02
    21 1.7283200960E-02
    19 -2.5626906689E-02
    20 4.5488144267E-02
    22 5.2128934392E-02
    24 -9.0277144809E-02
    25 -2.2058038847E+00
    26 1.4068197079E-02
    27 -2.4244716648E-02
    28 1.4032945381E-02
    29 -2.8656815890E-01
    30 -4.2536051539E-01
    31 -5.9329152121E-01
    32 -4.1411747954E-02
    33 -9.0277144809E-02
    34 -2.2058038847E+00
    35 3.5611138923E-03
    36 3.0351689109E-02
    37 -6.9812209926E-03
    38 -2.8656815890E-01
    39 -5.8627608814E-01
    40 2.4285032199E-01
    41 -3.6324289346E-01
    Sym=
    Ene=    0.4130331427
   Spin=Alpha
  Occup=0.0000000000
     4 8.2603657613E-02
     5 -4.7691243959E-02
     6 -1.6520731523E-01
     7 2.1362903741E-01
     8 -1.2333878226E-01
     9 -4.2725807483E-01
    14 2.0879832158E-03
    12 8.3519328631E-03
    10 1.2527899295E-02
    11 1.4465972060E-02
    13 -1.0849479045E-02
    16 4.8487085175E-01
    17 -2.7994031678E-01
    18 -9.6974170349E-01
    23 -5.7018063066E-03
    21 -2.2807225226E-02
    19 -3.4210837839E-02
    20 -3.9503272872E-02
    22 2.9627454654E-02
    26 4.0908125754E-03
    27 -2.3618317416E-03
    28 -8.1816251508E-03
    30 -4.8936507206E-01
    31 2.8253505609E-01
    32 9.7873014412E-01
    35 4.0908125754E-03
    36 -2.3618317416E-03
    37 -8.1816251508E-03
    39 -4.8936507206E-01
    40 2.8253505609E-01
    41 9.7873014412E-01
    Sym=
    Ene=    0.5182034086
   Spin=Alpha
  Occup=0.0000000000
     4 1.7427692482E-02
     5 -9.0556946511E-02
     6 3.4855384963E-02
     7 2.3339353034E-02
     8 -1.2127483581E-01
     9 4.6678706069E-02
    14 -9.8505020947E-03
    12 -2.8144291699E-03
    10 2.8144291699E-03
    11 4.8747343166E-03
    13 5.6871900360E-03
    16 3.2672333839E-01
    17 -1.6977042664E+00
    18 6.5344667679E-01
    23 2.4433517861E-02
    21 6.9810051031E-03
    19 -6.9810051030E-03
    20 -1.2091455526E-02
    22 -1.4106698114E-02
    24 4.2041233643E-02
    25 2.7471744891E-01
    26 -1.8798514668E-02
    27 -2.8610077537E-02
    28 -1.1402393500E-03
    29 -5.4130845441E-01
    30 6.1129186583E-01
    31 1.8476303413E+00
    32 -2.2771900454E-01
    33 -4.2041233643E-02
    34 -2.7471744890E-01
    35 2.6772472814E-02
    36 -1.2823824404E-02
    37 1.7088155643E-02
    38 5.4130845441E-01
    39 -1.2015865544E+00
    40 1.2196308349E+00
    41 -9.5287037264E-01
    Sym=
    Ene=    0.6048149220
   Spin=Alpha
  Occup=0.0000000000
     1 7.7213398060E-02
     2 -1.0841321133E-01
     3 -2.1309671350E+00
     4 -3.0070722874E-01
     5 -1.0416803968E-01
     6 -1.2028289149E-01
     7 -5.8592428658E-01
     8 -2.0297012676E-01
     9 -2.3436971463E-01
    14 -3.8316335621E-03
    12 -3.5949116907E-03
    10 2.6302430160E-04
    11 -2.4399803956E-03
    13 -6.4543554240E-03
    15 -4.5316555378E+00
    16 -4.6884876965E-01
    17 -1.6241397803E-01
    18 -1.8753950785E-01
    23 1.4898947096E-03
    21 -3.0814094854E-02
    19 -3.5893321737E-02
    20 3.1944719563E-02
    22 -2.2287049425E-02
    24 4.0841308953E-01
    25 2.4596960416E+00
    26 1.7811467988E-02
    27 -2.3383919983E-02
    28 1.5656090243E-02
    29 5.0887831780E-01
    30 -1.1739841162E+00
    31 8.3102991431E-01
    32 -8.2688973045E-01
    33 4.0841308954E-01
    34 2.4596960417E+00
    35 7.1470891789E-03
    36 3.2029817802E-02
    37 -5.6726673756E-03
    38 5.0887831781E-01
    39 -7.2736401121E-01
    40 -1.4896762262E+00
    41 6.6350479511E-02
    Sym=
    Ene=    0.6272366158
   Spin=Alpha
  Occup=0.0000000000
     4 8.7745820446E-02
     5 -4.5594065748E-01
     6 1.7549164089E-01
     7 2.5479688188E-01
     8 -1.3239634351E+00
     9 5.0959376376E-01
    14 4.8515993232E-03
    12 1.3861712352E-03
    10 -1.3861712352E-03
    11 -2.4009190074E-03
    13 -2.8010721752E-03
    16 2.6871559955E-01
    17 -1.3962872136E+00
    18 5.3743119908E-01
    23 1.6676491397E-02
    21 4.7647118282E-03
    19 -4.7647118272E-03
    20 -8.2527229695E-03
    22 -9.6281767968E-03
    24 -4.6880079492E-01
    25 -4.4962153320E+00
    26 -1.0188280026E-02
    27 8.6219542391E-03
    28 -7.5830838133E-03
    29 -1.0783847334E+00
    30 1.6294249109E+00
    31 -1.6156556310E+00
    32 1.2811120622E+00
    33 4.6880079491E-01
    34 4.4962153320E+00
    35 5.8035652717E-03
    36 1.4161691951E-02
    37 -1.1863456941E-03
    38 1.0783847334E+00
    39 -8.4274728862E-01
    40 -2.4720412019E+00
    41 2.9224318237E-01
    Sym=
    Ene=    0.7825257883
   Spin=Alpha
  Occup=0.0000000000
     4 3.3807785676E-02
     5 -1.7567040745E-01
     6 6.7615571353E-02
     7 -1.8958201053E-01
     8 9.8509702334E-01
     9 -3.7916402107E-01
    14 2.7307044370E-02
    12 7.8020126773E-03
    10 -7.8020126773E-03
    11 -1.3513482358E-02
    13 -1.5765729418E-02
    16 -3.4587772827E-01
    17 1.7972333957E+00
    18 -6.9175545654E-01
    23 5.4907109975E-01
    21 1.5687745707E-01
    19 -1.5687745707E-01
    20 -2.7171972621E-01
    22 -3.1700634725E-01
    24 -7.7281808308E-01
    25 4.8552496817E+00
    26 -1.6477306880E-01
    27 7.4824384369E-02
    28 -1.0398647363E-01
    29 5.4181437254E-01
    30 -8.0750277177E-01
    31 1.1406025764E+00
    32 -7.3301498815E-01
    33 7.7281808309E-01
    34 -4.8552496817E+00
    35 1.1717651116E-01
    36 1.7249458390E-01
    37 8.7933583569E-03
    38 -5.4181437254E-01
    39 2.9498542247E-01
    40 1.5225156899E+00
    41 -2.9201971045E-01
    Sym=
    Ene=    0.9003612795
   Spin=Alpha
  Occup=0.0000000000
     1 1.1725894891E-01
     2 4.1442002188E-01
     3 -1.4257359065E+00
     4 9.3983117872E-02
     5 3.2556707042E-02
     6 3.7593247149E-02
     7 -4.1628819203E-01
     8 -1.4420645983E-01
     9 -1.6651527681E-01
    14 8.0569156738E-04
    12 1.4594545437E-02
    10 1.5320948744E-02
    11 -1.2803164579E-02
    13 1.2010163388E-02
    15 -5.4949904580E+00
    16 -1.2734467555E+00
    17 -4.4113489625E-01
    18 -5.0937870220E-01
    23 3.4295057575E-03
    21 3.3130028246E-01
    19 3.6430086300E-01
    20 -3.1351377591E-01
    22 2.5833511980E-01
    24 -1.0834440904E+00
    25 3.8617685514E+00
    26 -9.6940662515E-02
    27 1.3446915767E-01
    28 -8.7288233447E-02
    29 2.3122502573E-01
    30 -6.0418045042E-01
    31 3.1248406570E-01
    32 -3.9229660493E-01
    33 -1.0834440904E+00
    34 3.8617685514E+00
    35 -3.6300701963E-02
    36 -1.8062532026E-01
    37 3.3991687656E-02
    38 2.3122502572E-01
    39 -4.1589991946E-01
    40 -6.6585027137E-01
    41 -1.5735543021E-02
    Sym=
    Ene=    1.1131551267
   Spin=Alpha
  Occup=0.0000000000
     4 9.6870480809E-02
     5 -5.5928198171E-02
     6 -1.9374096162E-01
     7 5.0368413726E-03
     8 -2.9080217224E-03
     9 -1.0073682745E-02
    14 2.0343082672E-03
    12 8.1372330687E-03
    10 1.2205849603E-02
    11 1.4094101108E-02
    13 -1.0570575831E-02
    16 2.9428119306E-01
    17 -1.6990332603E-01
    18 -5.8856238613E-01
    23 -9.9657785833E-02
    21 -3.9863114333E-01
    19 -5.9794671500E-01
    20 -6.9044939373E-01
    22 5.1783704530E-01
    26 1.3052001772E-02
    27 -7.5355767366E-03
    28 -2.6104003544E-02
    30 -2.4282753248E-01
    31 1.4019654125E-01
    32 4.8565506496E-01
    35 1.3052001772E-02
    36 -7.5355767367E-03
    37 -2.6104003544E-02
    39 -2.4282753248E-01
    40 1.4019654125E-01
    41 4.8565506496E-01
    Sym=
    Ene=    1.1211427532
   Spin=Alpha
  Occup=0.0000000000
     1 5.0626392578E-03
     2 -2.9687628471E-02
     3 -3.5770573696E-01
     4 1.4428619397E-01
     5 4.9982203758E-02
     6 5.7714477589E-02
     7 -5.9413462707E-02
     8 -2.0581427213E-02
     9 -2.3765385083E-02
    14 -7.7710232272E-03
    12 4.3877675762E-03
    10 1.3509767559E-02
    11 -1.6186404258E-02
    13 -4.0999655318E-03
    15 -1.9670328355E-01
    16 5.1365886148E-01
    17 1.7793664917E-01
    18 2.0546354459E-01
    23 5.2561582696E-01
    21 1.9697845899E-01
    19 -3.6515263108E-01
    20 6.1969589396E-01
    22 6.5740815373E-01
    24 -2.1425070395E-01
    25 2.1544228069E-01
    26 1.9436667936E-02
    27 8.8562378954E-02
    28 -1.5847422697E-02
    29 1.3789857038E-02
    30 -4.9173442815E-01
    31 -2.7685213938E-01
    32 -1.6594688548E-01
    33 -2.1425070395E-01
    34 2.1544228069E-01
    35 4.8964280274E-02
    36 -6.4867595437E-02
    37 4.3207801981E-02
    38 1.3789857038E-02
    39 -5.3016803538E-01
    40 -7.7145258066E-02
    41 -2.4281409994E-01
    Sym=
    Ene=    1.1360993147
   Spin=Alpha
  Occup=0.0000000000
    14 -8.7825179443E-03
    12 1.4052028711E-02
    10 -1.0539021533E-02
    13 -3.0423534596E-03
    23 5.2157075243E-01
    21 -8.3451320389E-01
    19 6.2588490292E-01
    22 1.8067740859E-01
    26 -2.9456162091E-02
    27 1.7006523112E-02
    28 5.8912324182E-02
    30 2.7153943137E-01
    31 -1.5677336380E-01
    32 -5.4307886274E-01
    35 2.9456162091E-02
    36 -1.7006523112E-02
    37 -5.8912324182E-02
    39 -2.7153943137E-01
    40 1.5677336380E-01
    41 5.4307886274E-01
    Sym=
    Ene=    1.2519386181
   Spin=Alpha
  Occup=0.0000000000
     1 1.0189313424E-01
     2 4.0942374622E-01
     3 -1.0366418918E+00
     4 5.5760709100E-01
     5 1.9316076245E-01
     6 2.2304283640E-01
     7 -6.5248574971E-01
     8 -2.2602769394E-01
     9 -2.6099429988E-01
    14 1.4849194317E-03
    12 3.3089275839E-02
    10 3.5115951564E-02
    11 -2.9553987499E-02
    13 2.6901000807E-02
    15 -2.0506501630E+00
    16 -4.6984013268E-01
    17 -1.6275739625E-01
    18 -1.8793605307E-01
    23 -1.5465939367E-01
    21 -5.3335265530E-01
    19 -4.2077029070E-01
    20 2.7510511834E-01
    22 -5.5939613642E-01
    24 -1.1145926720E+00
    25 1.7467956615E+00
    26 -1.5797271115E-01
    27 1.0165011436E-01
    28 -1.0833021602E-01
    29 5.6045620247E-02
    30 -1.8272093632E-01
    31 4.9359586492E-01
    32 -2.3384932090E-01
    33 -1.1145926720E+00
    34 1.7467956615E+00
    35 -1.0154629670E-01
    36 -1.9155013579E-01
    37 4.5226128807E-03
    38 5.6045620246E-02
    39 1.8230246651E-02
    40 -5.5057711130E-01
    41 1.6805304503E-01
    Sym=
    Ene=    1.4224344275
   Spin=Alpha
  Occup=0.0000000000
     4 -1.5417226013E-01
     5 8.0110256300E-01
     6 -3.0834452026E-01
     7 2.7227104601E-01
     8 -1.4147618554E+00
     9 5.4454209202E-01
    14 -5.1877210290E-02
    12 -1.4822060083E-02
    10 1.4822060083E-02
    11 2.5672561136E-02
    13 2.9951321325E-02
    16 1.0988161382E-01
    17 -5.7096161385E-01
    18 2.1976322763E-01
    23 6.0517595106E-01
    21 1.7290741459E-01
    19 -1.7290741459E-01
    20 -2.9948442707E-01
    22 -3.4939849825E-01
    24 9.3153595520E-01
    25 -2.8757490522E+00
    26 2.0372965911E-01
    27 -1.4027686618E-01
    28 1.4235927278E-01
    29 -3.6924822796E-02
    30 8.5828832346E-01
    31 -5.6315474361E-01
    32 5.9171293314E-01
    33 -9.3153595520E-01
    34 2.8757490522E+00
    35 -1.2764539769E-01
    36 -2.5506855312E-01
    37 9.8092500583E-03
    38 3.6924822795E-02
    39 -5.4779131877E-01
    40 -1.0502350196E+00
    41 2.9281076249E-02
    Sym=
    Ene=    1.4391355784
   Spin=Alpha
  Occup=0.0000000000
     4 -6.1352501262E-01
     5 3.5421883119E-01
     6 1.2270500252E+00
     7 6.1982823989E-01
     8 -3.5785800115E-01
     9 -1.2396564798E+00
    14 -2.5555932695E-04
    12 -1.0222373077E-03
    10 -1.5333559616E-03
    11 -1.7705669544E-03
    13 1.3279252158E-03
    16 -7.5911403315E-03
    17 4.3827469137E-03
    18 1.5182280663E-02
    23 -2.3098347529E-02
    21 -9.2393390116E-02
    19 -1.3859008517E-01
    20 -1.6003004597E-01
    22 1.2002253447E-01
    26 3.3843957167E-02
    27 -1.9539817781E-02
    28 -6.7687914334E-02
    30 -1.8861528749E-01
    31 1.0889708701E-01
    32 3.7723057498E-01
    35 3.3843957167E-02
    36 -1.9539817781E-02
    37 -6.7687914334E-02
    39 -1.8861528749E-01
    40 1.0889708701E-01
    41 3.7723057498E-01
    Sym=
    Ene=    1.5594888209
   Spin=Alpha
  Occup=0.0000000000
     1 1.8432419049E-01
     2 1.0231451800E+00
     3 -1.8418397427E-01
     4 -1.0196381039E+00
     5 -3.5321300027E-01
     6 -4.0785524158E-01
     7 1.4881378004E+00
     8 5.1550605581E-01
     9 5.9525512018E-01
    14 4.3831033781E-03
    12 1.4115755634E-02
    10 1.0814058063E-02
    11 -6.8346630849E-03
    13 1.5083956946E-02
    15 2.3987637917E+00
    16 2.7618892904E-01
    17 9.5674651518E-02
    18 1.1047557162E-01
    23 1.3089781207E-02
    21 -3.2303266506E-01
    19 -3.7346938474E-01
    20 3.3099136342E-01
    22 -2.3607501367E-01
    24 -1.0680417261E+00
    25 -9.8303519092E-01
    26 1.2880154860E-01
    27 3.7078739676E-02
    28 5.3697064135E-02
    29 -2.1354421934E-01
    30 -3.5294240681E-03
    31 -2.1152483202E-01
    32 5.9297247320E-02
    33 -1.0680417261E+00
    34 -9.8303519092E-01
    35 1.2608099274E-01
    36 5.1215162636E-02
    37 4.8255952401E-02
    38 -2.1354421934E-01
    39 -7.9415695252E-02
    40 1.8279179984E-01
    41 -9.2475295047E-02
    Sym=
    Ene=    1.9054797628
   Spin=Alpha
  Occup=0.0000000000
     4 -5.4750083083E-02
     5 2.8448977686E-01
     6 -1.0950016617E-01
     7 1.0735898882E-01
     8 -5.5785366987E-01
     9 2.1471797765E-01
    14 3.2494109865E-02
    12 9.2840313900E-03
    10 -9.2840313900E-03
    11 -1.6080414067E-02
    13 -1.8760483078E-02
    16 1.6097786797E-01
    17 -8.3646553866E-01
    18 3.2195573594E-01
    23 -4.0525996484E-01
    21 -1.1578856138E-01
    19 1.1578856138E-01
    20 2.0055167125E-01
    22 2.3397694979E-01
    24 -5.6291985503E-01
    25 -6.6617448763E-01
    26 -4.4776335175E-01
    27 -6.7306291901E-01
    28 -2.9585147138E-02
    29 -3.4334609333E-01
    30 4.9950420769E-01
    31 4.8732407281E-01
    32 1.0907376153E-01
    33 5.6291985503E-01
    34 6.6617448763E-01
    35 6.3466359370E-01